TITLE     = "example"
VARIABLES = "x"	"y"	"h"	"u"	"v"
ZONE T="TTT"
I=40, J=40, ZONETYPE=Ordered
DATAPACKING=POINT
2.500000 	2.500000 	10.000000 	0.000000 	0.000000
7.500000 	2.500000 	10.000000 	0.000000 	0.000000
12.500000 	2.500000 	10.000000 	0.000000 	0.000000
17.500000 	2.500000 	10.000000 	0.000000 	0.000000
22.500000 	2.500000 	10.000000 	0.000000 	0.000000
27.500000 	2.500000 	10.000000 	0.000000 	0.000000
32.500000 	2.500000 	10.000000 	0.000000 	0.000000
37.500000 	2.500000 	10.000000 	0.000000 	0.000000
42.500000 	2.500000 	10.000000 	0.000000 	0.000000
47.500000 	2.500000 	10.000000 	0.000000 	0.000000
52.500000 	2.500000 	10.000000 	0.000000 	0.000000
57.500000 	2.500000 	10.000000 	0.000000 	0.000000
62.500000 	2.500000 	10.000000 	0.000000 	0.000000
67.500000 	2.500000 	10.000000 	0.000000 	0.000000
72.500000 	2.500000 	10.000000 	0.000000 	0.000000
77.500000 	2.500000 	10.000000 	0.000000 	0.000000
82.500000 	2.500000 	10.000000 	0.000000 	0.000000
87.500000 	2.500000 	10.000000 	0.000000 	0.000000
92.500000 	2.500000 	10.000000 	0.000000 	0.000000
97.500000 	2.500000 	10.000000 	-0.000000 	0.000000
102.500000 	2.500000 	5.000000 	-0.000000 	-0.000000
107.500000 	2.500000 	5.000000 	0.000000 	-0.000000
112.500000 	2.500000 	5.000000 	0.000000 	-0.000000
117.500000 	2.500000 	5.000000 	0.000000 	0.000000
122.500000 	2.500000 	5.000000 	0.000000 	0.000000
127.500000 	2.500000 	5.000000 	0.000000 	0.000000
132.500000 	2.500000 	5.000000 	0.000000 	0.000000
137.500000 	2.500000 	5.000000 	0.000000 	0.000000
142.500000 	2.500000 	5.000000 	0.000000 	0.000000
147.500000 	2.500000 	5.000000 	0.000000 	0.000000
152.500000 	2.500000 	5.000000 	0.000000 	0.000000
157.500000 	2.500000 	5.000000 	0.000000 	0.000000
162.500000 	2.500000 	5.000000 	0.000000 	0.000000
167.500000 	2.500000 	5.000000 	0.000000 	0.000000
172.500000 	2.500000 	5.000000 	0.000000 	0.000000
177.500000 	2.500000 	5.000000 	0.000000 	0.000000
182.500000 	2.500000 	5.000000 	0.000000 	0.000000
187.500000 	2.500000 	5.000000 	0.000000 	0.000000
192.500000 	2.500000 	5.000000 	0.000000 	0.000000
197.500000 	2.500000 	5.000000 	0.000000 	0.000000
2.500000 	7.500000 	10.000000 	0.000000 	0.000000
7.500000 	7.500000 	10.000000 	0.000000 	0.000000
12.500000 	7.500000 	10.000000 	0.000000 	0.000000
17.500000 	7.500000 	10.000000 	0.000000 	0.000000
22.500000 	7.500000 	10.000000 	0.000000 	0.000000
27.500000 	7.500000 	10.000000 	0.000000 	0.000000
32.500000 	7.500000 	10.000000 	0.000000 	0.000000
37.500000 	7.500000 	10.000000 	0.000000 	0.000000
42.500000 	7.500000 	10.000000 	0.000000 	0.000000
47.500000 	7.500000 	10.000000 	0.000000 	0.000000
52.500000 	7.500000 	10.000000 	0.000000 	0.000000
57.500000 	7.500000 	10.000000 	0.000000 	0.000000
62.500000 	7.500000 	10.000000 	0.000000 	0.000000
67.500000 	7.500000 	10.000000 	0.000000 	0.000000
72.500000 	7.500000 	10.000000 	0.000000 	0.000000
77.500000 	7.500000 	10.000000 	0.000000 	0.000000
82.500000 	7.500000 	10.000000 	0.000000 	0.000000
87.500000 	7.500000 	10.000000 	0.000000 	0.000000
92.500000 	7.500000 	10.000000 	0.000000 	0.000000
97.500000 	7.500000 	10.000000 	-0.000000 	0.000000
102.500000 	7.500000 	5.000000 	-0.000000 	-0.000000
107.500000 	7.500000 	5.000000 	0.000000 	-0.000000
112.500000 	7.500000 	5.000000 	0.000000 	-0.000000
117.500000 	7.500000 	5.000000 	0.000000 	-0.000000
122.500000 	7.500000 	5.000000 	0.000000 	0.000000
127.500000 	7.500000 	5.000000 	0.000000 	0.000000
132.500000 	7.500000 	5.000000 	0.000000 	0.000000
137.500000 	7.500000 	5.000000 	0.000000 	0.000000
142.500000 	7.500000 	5.000000 	0.000000 	0.000000
147.500000 	7.500000 	5.000000 	0.000000 	0.000000
152.500000 	7.500000 	5.000000 	0.000000 	0.000000
157.500000 	7.500000 	5.000000 	0.000000 	0.000000
162.500000 	7.500000 	5.000000 	0.000000 	0.000000
167.500000 	7.500000 	5.000000 	0.000000 	0.000000
172.500000 	7.500000 	5.000000 	0.000000 	0.000000
177.500000 	7.500000 	5.000000 	0.000000 	0.000000
182.500000 	7.500000 	5.000000 	0.000000 	0.000000
187.500000 	7.500000 	5.000000 	0.000000 	0.000000
192.500000 	7.500000 	5.000000 	0.000000 	0.000000
197.500000 	7.500000 	5.000000 	0.000000 	0.000000
2.500000 	12.500000 	10.000000 	0.000000 	0.000000
7.500000 	12.500000 	10.000000 	0.000000 	0.000000
12.500000 	12.500000 	10.000000 	0.000000 	0.000000
17.500000 	12.500000 	10.000000 	0.000000 	0.000000
22.500000 	12.500000 	10.000000 	0.000000 	0.000000
27.500000 	12.500000 	10.000000 	0.000000 	0.000000
32.500000 	12.500000 	10.000000 	0.000000 	0.000000
37.500000 	12.500000 	10.000000 	0.000000 	0.000000
42.500000 	12.500000 	10.000000 	0.000000 	0.000000
47.500000 	12.500000 	10.000000 	0.000000 	0.000000
52.500000 	12.500000 	10.000000 	0.000000 	0.000000
57.500000 	12.500000 	10.000000 	0.000000 	0.000000
62.500000 	12.500000 	10.000000 	0.000000 	0.000000
67.500000 	12.500000 	10.000000 	0.000000 	0.000000
72.500000 	12.500000 	10.000000 	0.000000 	0.000000
77.500000 	12.500000 	10.000000 	0.000000 	0.000000
82.500000 	12.500000 	10.000000 	0.000000 	0.000000
87.500000 	12.500000 	9.999999 	0.000000 	0.000001
92.500000 	12.500000 	9.999999 	0.000000 	0.000001
97.500000 	12.500000 	9.999999 	-0.000000 	0.000001
102.500000 	12.500000 	5.000000 	-0.000000 	-0.000000
107.500000 	12.500000 	5.000000 	0.000000 	-0.000000
112.500000 	12.500000 	5.000000 	0.000000 	-0.000000
117.500000 	12.500000 	5.000000 	0.000000 	-0.000000
122.500000 	12.500000 	5.000000 	0.000000 	-0.000000
127.500000 	12.500000 	5.000000 	0.000000 	0.000000
132.500000 	12.500000 	5.000000 	0.000000 	0.000000
137.500000 	12.500000 	5.000000 	0.000000 	0.000000
142.500000 	12.500000 	5.000000 	0.000000 	0.000000
147.500000 	12.500000 	5.000000 	0.000000 	0.000000
152.500000 	12.500000 	5.000000 	0.000000 	0.000000
157.500000 	12.500000 	5.000000 	0.000000 	0.000000
162.500000 	12.500000 	5.000000 	0.000000 	0.000000
167.500000 	12.500000 	5.000000 	0.000000 	0.000000
172.500000 	12.500000 	5.000000 	0.000000 	0.000000
177.500000 	12.500000 	5.000000 	0.000000 	0.000000
182.500000 	12.500000 	5.000000 	0.000000 	0.000000
187.500000 	12.500000 	5.000000 	0.000000 	0.000000
192.500000 	12.500000 	5.000000 	0.000000 	0.000000
197.500000 	12.500000 	5.000000 	0.000000 	0.000000
2.500000 	17.500000 	10.000000 	0.000000 	0.000000
7.500000 	17.500000 	10.000000 	0.000000 	0.000000
12.500000 	17.500000 	10.000000 	0.000000 	0.000000
17.500000 	17.500000 	10.000000 	0.000000 	0.000000
22.500000 	17.500000 	10.000000 	0.000000 	0.000000
27.500000 	17.500000 	10.000000 	0.000000 	0.000000
32.500000 	17.500000 	10.000000 	0.000000 	0.000000
37.500000 	17.500000 	10.000000 	0.000000 	0.000000
42.500000 	17.500000 	10.000000 	0.000000 	0.000000
47.500000 	17.500000 	10.000000 	0.000000 	0.000000
52.500000 	17.500000 	10.000000 	0.000000 	0.000000
57.500000 	17.500000 	10.000000 	0.000000 	0.000000
62.500000 	17.500000 	10.000000 	0.000000 	0.000000
67.500000 	17.500000 	10.000000 	0.000000 	0.000000
72.500000 	17.500000 	10.000000 	0.000000 	0.000000
77.500000 	17.500000 	9.999999 	0.000000 	0.000001
82.500000 	17.500000 	9.999998 	0.000000 	0.000003
87.500000 	17.500000 	9.999994 	0.000001 	0.000007
92.500000 	17.500000 	9.999989 	0.000000 	0.000012
97.500000 	17.500000 	9.999989 	-0.000000 	0.000012
102.500000 	17.500000 	5.000000 	-0.000000 	-0.000000
107.500000 	17.500000 	5.000000 	0.000000 	-0.000000
112.500000 	17.500000 	5.000000 	0.000000 	-0.000000
117.500000 	17.500000 	5.000000 	0.000000 	-0.000000
122.500000 	17.500000 	5.000000 	0.000000 	-0.000000
127.500000 	17.500000 	5.000000 	0.000000 	-0.000000
132.500000 	17.500000 	5.000000 	0.000000 	0.000000
137.500000 	17.500000 	5.000000 	0.000000 	0.000000
142.500000 	17.500000 	5.000000 	0.000000 	0.000000
147.500000 	17.500000 	5.000000 	0.000000 	0.000000
152.500000 	17.500000 	5.000000 	0.000000 	0.000000
157.500000 	17.500000 	5.000000 	0.000000 	0.000000
162.500000 	17.500000 	5.000000 	0.000000 	0.000000
167.500000 	17.500000 	5.000000 	0.000000 	0.000000
172.500000 	17.500000 	5.000000 	0.000000 	0.000000
177.500000 	17.500000 	5.000000 	0.000000 	0.000000
182.500000 	17.500000 	5.000000 	0.000000 	0.000000
187.500000 	17.500000 	5.000000 	0.000000 	0.000000
192.500000 	17.500000 	5.000000 	0.000000 	0.000000
197.500000 	17.500000 	5.000000 	0.000000 	0.000000
2.500000 	22.500000 	10.000000 	0.000000 	0.000000
7.500000 	22.500000 	10.000000 	0.000000 	0.000000
12.500000 	22.500000 	10.000000 	0.000000 	0.000000
17.500000 	22.500000 	10.000000 	0.000000 	0.000000
22.500000 	22.500000 	10.000000 	0.000000 	0.000000
27.500000 	22.500000 	10.000000 	0.000000 	0.000000
32.500000 	22.500000 	10.000000 	0.000000 	0.000000
37.500000 	22.500000 	10.000000 	0.000000 	0.000000
42.500000 	22.500000 	10.000000 	0.000000 	0.000000
47.500000 	22.500000 	10.000000 	0.000000 	0.000000
52.500000 	22.500000 	10.000000 	0.000000 	0.000000
57.500000 	22.500000 	10.000000 	0.000000 	0.000000
62.500000 	22.500000 	10.000000 	0.000000 	0.000000
67.500000 	22.500000 	10.000000 	0.000000 	0.000000
72.500000 	22.500000 	9.999999 	0.000000 	0.000001
77.500000 	22.500000 	9.999994 	0.000002 	0.000006
82.500000 	22.500000 	9.999980 	0.000004 	0.000022
87.500000 	22.500000 	9.999956 	0.000006 	0.000049
92.500000 	22.500000 	9.999935 	0.000003 	0.000072
97.500000 	22.500000 	9.999935 	-0.000003 	0.000072
102.500000 	22.500000 	5.000001 	-0.000000 	-0.000002
107.500000 	22.500000 	5.000001 	0.000000 	-0.000002
112.500000 	22.500000 	5.000001 	0.000000 	-0.000001
117.500000 	22.500000 	5.000000 	0.000000 	-0.000000
122.500000 	22.500000 	5.000000 	0.000000 	-0.000000
127.500000 	22.500000 	5.000000 	0.000000 	-0.000000
132.500000 	22.500000 	5.000000 	0.000000 	-0.000000
137.500000 	22.500000 	5.000000 	0.000000 	0.000000
142.500000 	22.500000 	5.000000 	0.000000 	0.000000
147.500000 	22.500000 	5.000000 	0.000000 	0.000000
152.500000 	22.500000 	5.000000 	0.000000 	0.000000
157.500000 	22.500000 	5.000000 	0.000000 	0.000000
162.500000 	22.500000 	5.000000 	0.000000 	0.000000
167.500000 	22.500000 	5.000000 	0.000000 	0.000000
172.500000 	22.500000 	5.000000 	0.000000 	0.000000
177.500000 	22.500000 	5.000000 	0.000000 	0.000000
182.500000 	22.500000 	5.000000 	0.000000 	0.000000
187.500000 	22.500000 	5.000000 	0.000000 	0.000000
192.500000 	22.500000 	5.000000 	0.000000 	0.000000
197.500000 	22.500000 	5.000000 	0.000000 	0.000000
2.500000 	27.500000 	10.000000 	0.000000 	0.000000
7.500000 	27.500000 	10.000000 	0.000000 	0.000000
12.500000 	27.500000 	10.000000 	0.000000 	0.000000
17.500000 	27.500000 	10.000000 	0.000000 	0.000000
22.500000 	27.500000 	10.000000 	0.000000 	0.000000
27.500000 	27.500000 	10.000000 	0.000000 	0.000000
32.500000 	27.500000 	10.000000 	0.000000 	0.000000
37.500000 	27.500000 	10.000000 	0.000000 	0.000000
42.500000 	27.500000 	10.000000 	0.000000 	0.000000
47.500000 	27.500000 	10.000000 	0.000000 	0.000000
52.500000 	27.500000 	10.000000 	0.000000 	0.000000
57.500000 	27.500000 	10.000000 	0.000000 	0.000000
62.500000 	27.500000 	10.000000 	0.000000 	0.000000
67.500000 	27.500000 	9.999998 	0.000001 	0.000002
72.500000 	27.500000 	9.999987 	0.000005 	0.000013
77.500000 	27.500000 	9.999951 	0.000015 	0.000050
82.500000 	27.500000 	9.999873 	0.000029 	0.000135
87.500000 	27.500000 	9.999765 	0.000034 	0.000257
92.500000 	27.500000 	9.999680 	0.000016 	0.000355
97.500000 	27.500000 	9.999680 	-0.000016 	0.000355
102.500000 	27.500000 	5.000008 	-0.000000 	-0.000012
107.500000 	27.500000 	5.000008 	0.000000 	-0.000012
112.500000 	27.500000 	5.000005 	0.000001 	-0.000007
117.500000 	27.500000 	5.000002 	0.000000 	-0.000003
122.500000 	27.500000 	5.000000 	0.000000 	-0.000001
127.500000 	27.500000 	5.000000 	0.000000 	-0.000000
132.500000 	27.500000 	5.000000 	0.000000 	-0.000000
137.500000 	27.500000 	5.000000 	0.000000 	-0.000000
142.500000 	27.500000 	5.000000 	0.000000 	0.000000
147.500000 	27.500000 	5.000000 	0.000000 	0.000000
152.500000 	27.500000 	5.000000 	0.000000 	0.000000
157.500000 	27.500000 	5.000000 	0.000000 	0.000000
162.500000 	27.500000 	5.000000 	0.000000 	0.000000
167.500000 	27.500000 	5.000000 	0.000000 	0.000000
172.500000 	27.500000 	5.000000 	0.000000 	0.000000
177.500000 	27.500000 	5.000000 	0.000000 	0.000000
182.500000 	27.500000 	5.000000 	0.000000 	0.000000
187.500000 	27.500000 	5.000000 	0.000000 	0.000000
192.500000 	27.500000 	5.000000 	0.000000 	0.000000
197.500000 	27.500000 	5.000000 	0.000000 	0.000000
2.500000 	32.500000 	10.000000 	0.000000 	0.000000
7.500000 	32.500000 	10.000000 	0.000000 	0.000000
12.500000 	32.500000 	10.000000 	0.000000 	0.000000
17.500000 	32.500000 	10.000000 	0.000000 	0.000000
22.500000 	32.500000 	10.000000 	0.000000 	0.000000
27.500000 	32.500000 	10.000000 	0.000000 	0.000000
32.500000 	32.500000 	10.000000 	0.000000 	0.000000
37.500000 	32.500000 	10.000000 	0.000000 	0.000000
42.500000 	32.500000 	10.000000 	0.000000 	0.000000
47.500000 	32.500000 	10.000000 	0.000000 	0.000000
52.500000 	32.500000 	10.000000 	0.000000 	0.000000
57.500000 	32.500000 	10.000000 	0.000000 	0.000000
62.500000 	32.500000 	9.999997 	0.000002 	0.000003
67.500000 	32.500000 	9.999977 	0.000010 	0.000021
72.500000 	32.500000 	9.999904 	0.000037 	0.000094
77.500000 	32.500000 	9.999718 	0.000089 	0.000287
82.500000 	32.500000 	9.999389 	0.000147 	0.000646
87.500000 	32.500000 	9.998991 	0.000152 	0.001099
92.500000 	32.500000 	9.998707 	0.000067 	0.001433
97.500000 	32.500000 	9.998707 	-0.000067 	0.001433
102.500000 	32.500000 	5.000051 	-0.000003 	-0.000081
107.500000 	32.500000 	5.000051 	0.000003 	-0.000081
112.500000 	32.500000 	5.000033 	0.000006 	-0.000051
117.500000 	32.500000 	5.000014 	0.000004 	-0.000021
122.500000 	32.500000 	5.000004 	0.000002 	-0.000006
127.500000 	32.500000 	5.000001 	0.000000 	-0.000001
132.500000 	32.500000 	5.000000 	0.000000 	-0.000000
137.500000 	32.500000 	5.000000 	0.000000 	-0.000000
142.500000 	32.500000 	5.000000 	0.000000 	-0.000000
147.500000 	32.500000 	5.000000 	0.000000 	0.000000
152.500000 	32.500000 	5.000000 	0.000000 	0.000000
157.500000 	32.500000 	5.000000 	0.000000 	0.000000
162.500000 	32.500000 	5.000000 	0.000000 	0.000000
167.500000 	32.500000 	5.000000 	0.000000 	0.000000
172.500000 	32.500000 	5.000000 	0.000000 	0.000000
177.500000 	32.500000 	5.000000 	0.000000 	0.000000
182.500000 	32.500000 	5.000000 	0.000000 	0.000000
187.500000 	32.500000 	5.000000 	0.000000 	0.000000
192.500000 	32.500000 	5.000000 	0.000000 	0.000000
197.500000 	32.500000 	5.000000 	0.000000 	0.000000
2.500000 	37.500000 	10.000000 	0.000000 	0.000000
7.500000 	37.500000 	10.000000 	0.000000 	0.000000
12.500000 	37.500000 	10.000000 	0.000000 	0.000000
17.500000 	37.500000 	10.000000 	0.000000 	0.000000
22.500000 	37.500000 	10.000000 	0.000000 	0.000000
27.500000 	37.500000 	10.000000 	0.000000 	0.000000
32.500000 	37.500000 	10.000000 	0.000000 	0.000000
37.500000 	37.500000 	10.000000 	0.000000 	0.000000
42.500000 	37.500000 	10.000000 	0.000000 	0.000000
47.500000 	37.500000 	10.000000 	0.000000 	0.000000
52.500000 	37.500000 	10.000000 	0.000000 	0.000000
57.500000 	37.500000 	9.999995 	0.000003 	0.000004
62.500000 	37.500000 	9.999966 	0.000017 	0.000031
67.500000 	37.500000 	9.999841 	0.000073 	0.000148
72.500000 	37.500000 	9.999484 	0.000207 	0.000500
77.500000 	37.500000 	9.998747 	0.000417 	0.001266
82.500000 	37.500000 	9.997635 	0.000597 	0.002486
87.500000 	37.500000 	9.996435 	0.000565 	0.003872
92.500000 	37.500000 	9.995637 	0.000236 	0.004827
97.500000 	37.500000 	9.995637 	-0.000236 	0.004827
102.500000 	37.500000 	5.000277 	-0.000019 	-0.000437
107.500000 	37.500000 	5.000277 	0.000019 	-0.000437
112.500000 	37.500000 	5.000192 	0.000040 	-0.000297
117.500000 	37.500000 	5.000093 	0.000031 	-0.000139
122.500000 	37.500000 	5.000032 	0.000014 	-0.000046
127.500000 	37.500000 	5.000008 	0.000004 	-0.000011
132.500000 	37.500000 	5.000001 	0.000001 	-0.000002
137.500000 	37.500000 	5.000000 	0.000000 	-0.000000
142.500000 	37.500000 	5.000000 	0.000000 	-0.000000
147.500000 	37.500000 	5.000000 	0.000000 	-0.000000
152.500000 	37.500000 	5.000000 	0.000000 	0.000000
157.500000 	37.500000 	5.000000 	0.000000 	0.000000
162.500000 	37.500000 	5.000000 	0.000000 	0.000000
167.500000 	37.500000 	5.000000 	0.000000 	0.000000
172.500000 	37.500000 	5.000000 	0.000000 	0.000000
177.500000 	37.500000 	5.000000 	0.000000 	0.000000
182.500000 	37.500000 	5.000000 	0.000000 	0.000000
187.500000 	37.500000 	5.000000 	0.000000 	0.000000
192.500000 	37.500000 	5.000000 	0.000000 	0.000000
197.500000 	37.500000 	5.000000 	0.000000 	0.000000
2.500000 	42.500000 	10.000000 	0.000000 	0.000000
7.500000 	42.500000 	10.000000 	0.000000 	0.000000
12.500000 	42.500000 	10.000000 	0.000000 	0.000000
17.500000 	42.500000 	10.000000 	0.000000 	0.000000
22.500000 	42.500000 	10.000000 	0.000000 	0.000000
27.500000 	42.500000 	10.000000 	0.000000 	0.000000
32.500000 	42.500000 	10.000000 	0.000000 	0.000000
37.500000 	42.500000 	10.000000 	0.000000 	0.000000
42.500000 	42.500000 	10.000000 	0.000000 	0.000000
47.500000 	42.500000 	10.000000 	0.000000 	0.000000
52.500000 	42.500000 	9.999994 	0.000004 	0.000005
57.500000 	42.500000 	9.999954 	0.000026 	0.000039
62.500000 	42.500000 	9.999769 	0.000122 	0.000202
67.500000 	42.500000 	9.999189 	0.000388 	0.000741
72.500000 	42.500000 	9.997853 	0.000902 	0.002054
77.500000 	42.500000 	9.995529 	0.001563 	0.004481
82.500000 	42.500000 	9.992450 	0.002002 	0.007904
87.500000 	42.500000 	9.989424 	0.001762 	0.011467
92.500000 	42.500000 	9.987527 	0.000711 	0.013798
97.500000 	42.500000 	9.987527 	-0.000711 	0.013798
102.500000 	42.500000 	5.001261 	-0.000093 	-0.001983
107.500000 	42.500000 	5.001261 	0.000093 	-0.001983
112.500000 	42.500000 	5.000932 	0.000201 	-0.001438
117.500000 	42.500000 	5.000503 	0.000176 	-0.000752
122.500000 	42.500000 	5.000201 	0.000094 	-0.000288
127.500000 	42.500000 	5.000060 	0.000034 	-0.000082
132.500000 	42.500000 	5.000013 	0.000009 	-0.000017
137.500000 	42.500000 	5.000002 	0.000002 	-0.000003
142.500000 	42.500000 	5.000000 	0.000000 	-0.000000
147.500000 	42.500000 	5.000000 	0.000000 	-0.000000
152.500000 	42.500000 	5.000000 	0.000000 	-0.000000
157.500000 	42.500000 	5.000000 	0.000000 	0.000000
162.500000 	42.500000 	5.000000 	0.000000 	0.000000
167.500000 	42.500000 	5.000000 	0.000000 	0.000000
172.500000 	42.500000 	5.000000 	0.000000 	0.000000
177.500000 	42.500000 	5.000000 	0.000000 	0.000000
182.500000 	42.500000 	5.000000 	0.000000 	0.000000
187.500000 	42.500000 	5.000000 	0.000000 	0.000000
192.500000 	42.500000 	5.000000 	0.000000 	0.000000
197.500000 	42.500000 	5.000000 	0.000000 	0.000000
2.500000 	47.500000 	10.000000 	0.000000 	0.000000
7.500000 	47.500000 	10.000000 	0.000000 	0.000000
12.500000 	47.500000 	10.000000 	0.000000 	0.000000
17.500000 	47.500000 	10.000000 	0.000000 	0.000000
22.500000 	47.500000 	10.000000 	0.000000 	0.000000
27.500000 	47.500000 	10.000000 	0.000000 	0.000000
32.500000 	47.500000 	10.000000 	0.000000 	0.000000
37.500000 	47.500000 	10.000000 	0.000000 	0.000000
42.500000 	47.500000 	10.000000 	0.000000 	0.000000
47.500000 	47.500000 	9.999993 	0.000004 	0.000005
52.500000 	47.500000 	9.999944 	0.000035 	0.000044
57.500000 	47.500000 	9.999703 	0.000177 	0.000243
62.500000 	47.500000 	9.998884 	0.000616 	0.000956
67.500000 	47.500000 	9.996822 	0.001595 	0.002856
72.500000 	47.500000 	9.992845 	0.003157 	0.006764
77.500000 	47.500000 	9.986847 	0.004838 	0.013086
82.500000 	47.500000 	9.979729 	0.005661 	0.021155
87.500000 	47.500000 	9.973269 	0.004691 	0.028992
92.500000 	47.500000 	9.969411 	0.001835 	0.033911
97.500000 	47.500000 	9.969411 	-0.001835 	0.033911
102.500000 	47.500000 	5.004849 	-0.000374 	-0.007610
107.500000 	47.500000 	5.004849 	0.000374 	-0.007610
112.500000 	47.500000 	5.003793 	0.000858 	-0.005841
117.500000 	47.500000 	5.002258 	0.000826 	-0.003358
122.500000 	47.500000 	5.001024 	0.000501 	-0.001456
127.500000 	47.500000 	5.000356 	0.000212 	-0.000482
132.500000 	47.500000 	5.000095 	0.000065 	-0.000122
137.500000 	47.500000 	5.000019 	0.000014 	-0.000023
142.500000 	47.500000 	5.000003 	0.000002 	-0.000003
147.500000 	47.500000 	5.000000 	0.000000 	-0.000000
152.500000 	47.500000 	5.000000 	0.000000 	-0.000000
157.500000 	47.500000 	5.000000 	0.000000 	-0.000000
162.500000 	47.500000 	5.000000 	0.000000 	0.000000
167.500000 	47.500000 	5.000000 	0.000000 	0.000000
172.500000 	47.500000 	5.000000 	0.000000 	0.000000
177.500000 	47.500000 	5.000000 	0.000000 	0.000000
182.500000 	47.500000 	5.000000 	0.000000 	0.000000
187.500000 	47.500000 	5.000000 	0.000000 	0.000000
192.500000 	47.500000 	5.000000 	0.000000 	0.000000
197.500000 	47.500000 	5.000000 	0.000000 	0.000000
2.500000 	52.500000 	10.000000 	0.000000 	0.000000
7.500000 	52.500000 	10.000000 	0.000000 	0.000000
12.500000 	52.500000 	10.000000 	0.000000 	0.000000
17.500000 	52.500000 	10.000000 	0.000000 	0.000000
22.500000 	52.500000 	10.000000 	0.000000 	0.000000
27.500000 	52.500000 	10.000000 	0.000000 	0.000000
32.500000 	52.500000 	10.000000 	0.000000 	0.000000
37.500000 	52.500000 	10.000000 	0.000000 	0.000000
42.500000 	52.500000 	9.999993 	0.000005 	0.000005
47.500000 	52.500000 	9.999939 	0.000042 	0.000044
52.500000 	52.500000 	9.999658 	0.000225 	0.000260
57.500000 	52.500000 	9.998635 	0.000849 	0.001088
62.500000 	52.500000 	9.995855 	0.002399 	0.003470
67.500000 	52.500000 	9.990028 	0.005259 	0.008805
72.500000 	52.500000 	9.980353 	0.009131 	0.018347
77.500000 	52.500000 	9.967424 	0.012643 	0.032198
82.500000 	52.500000 	9.953459 	0.013730 	0.048515
87.500000 	52.500000 	9.941608 	0.010831 	0.063528
92.500000 	52.500000 	9.934811 	0.004134 	0.072661
97.500000 	52.500000 	9.934811 	-0.004134 	0.072661
102.500000 	52.500000 	5.015829 	-0.001265 	-0.024808
107.500000 	52.500000 	5.015829 	0.001265 	-0.024808
112.500000 	52.500000 	5.013058 	0.003072 	-0.020072
117.500000 	52.500000 	5.008496 	0.003247 	-0.012584
122.500000 	52.500000 	5.004315 	0.002211 	-0.006087
127.500000 	52.500000 	5.001715 	0.001069 	-0.002293
132.500000 	52.500000 	5.000534 	0.000383 	-0.000676
137.500000 	52.500000 	5.000129 	0.000103 	-0.000155
142.500000 	52.500000 	5.000024 	0.000021 	-0.000027
147.500000 	52.500000 	5.000003 	0.000003 	-0.000004
152.500000 	52.500000 	5.000000 	0.000000 	-0.000000
157.500000 	52.500000 	5.000000 	0.000000 	-0.000000
162.500000 	52.500000 	5.000000 	0.000000 	-0.000000
167.500000 	52.500000 	5.000000 	0.000000 	0.000000
172.500000 	52.500000 	5.000000 	0.000000 	0.000000
177.500000 	52.500000 	5.000000 	0.000000 	0.000000
182.500000 	52.500000 	5.000000 	0.000000 	0.000000
187.500000 	52.500000 	5.000000 	0.000000 	0.000000
192.500000 	52.500000 	5.000000 	0.000000 	0.000000
197.500000 	52.500000 	5.000000 	0.000000 	0.000000
2.500000 	57.500000 	10.000000 	0.000000 	0.000000
7.500000 	57.500000 	10.000000 	0.000000 	0.000000
12.500000 	57.500000 	10.000000 	0.000000 	0.000000
17.500000 	57.500000 	10.000000 	0.000000 	0.000000
22.500000 	57.500000 	10.000000 	0.000000 	0.000000
27.500000 	57.500000 	10.000000 	0.000000 	0.000000
32.500000 	57.500000 	10.000000 	0.000000 	0.000000
37.500000 	57.500000 	9.999994 	0.000005 	0.000004
42.500000 	57.500000 	9.999940 	0.000045 	0.000040
47.500000 	57.500000 	9.999646 	0.000255 	0.000248
52.500000 	57.500000 	9.998504 	0.001031 	0.001099
57.500000 	57.500000 	9.995183 	0.003141 	0.003724
62.500000 	57.500000 	9.987686 	0.007492 	0.010056
67.500000 	57.500000 	9.974207 	0.014338 	0.022347
72.500000 	57.500000 	9.954508 	0.022350 	0.041965
77.500000 	57.500000 	9.930772 	0.028472 	0.068074
82.500000 	57.500000 	9.907107 	0.029098 	0.096991
87.500000 	57.500000 	9.888122 	0.022059 	0.122567
92.500000 	57.500000 	9.877593 	0.008254 	0.137790
97.500000 	57.500000 	9.877593 	-0.008254 	0.137790
102.500000 	57.500000 	5.043856 	-0.003591 	-0.068686
107.500000 	57.500000 	5.043856 	0.003591 	-0.068686
112.500000 	57.500000 	5.038101 	0.009265 	-0.058528
117.500000 	57.500000 	5.026988 	0.010755 	-0.039859
122.500000 	57.500000 	5.015232 	0.008178 	-0.021334
127.500000 	57.500000 	5.006836 	0.004474 	-0.009022
132.500000 	57.500000 	5.002445 	0.001839 	-0.003038
137.500000 	57.500000 	5.000695 	0.000579 	-0.000815
142.500000 	57.500000 	5.000156 	0.000140 	-0.000173
147.500000 	57.500000 	5.000027 	0.000026 	-0.000028
152.500000 	57.500000 	5.000003 	0.000003 	-0.000003
157.500000 	57.500000 	5.000000 	0.000000 	-0.000000
162.500000 	57.500000 	5.000000 	0.000000 	-0.000000
167.500000 	57.500000 	5.000000 	0.000000 	-0.000000
172.500000 	57.500000 	5.000000 	0.000000 	0.000000
177.500000 	57.500000 	5.000000 	0.000000 	0.000000
182.500000 	57.500000 	5.000000 	0.000000 	0.000000
187.500000 	57.500000 	5.000000 	0.000000 	0.000000
192.500000 	57.500000 	5.000000 	0.000000 	0.000000
197.500000 	57.500000 	5.000000 	0.000000 	0.000000
2.500000 	62.500000 	10.000000 	0.000000 	0.000000
7.500000 	62.500000 	10.000000 	0.000000 	0.000000
12.500000 	62.500000 	10.000000 	0.000000 	0.000000
17.500000 	62.500000 	10.000000 	0.000000 	0.000000
22.500000 	62.500000 	10.000000 	0.000000 	0.000000
27.500000 	62.500000 	10.000000 	0.000000 	0.000000
32.500000 	62.500000 	9.999995 	0.000004 	0.000003
37.500000 	62.500000 	9.999947 	0.000043 	0.000032
42.500000 	62.500000 	9.999671 	0.000257 	0.000210
47.500000 	62.500000 	9.998528 	0.001109 	0.000985
52.500000 	62.500000 	9.994981 	0.003624 	0.003541
57.500000 	62.500000 	9.986401 	0.009321 	0.010153
62.500000 	62.500000 	9.969807 	0.019378 	0.023971
67.500000 	62.500000 	9.943615 	0.033185 	0.047851
72.500000 	62.500000 	9.909278 	0.047365 	0.082669
77.500000 	62.500000 	9.871386 	0.056407 	0.126049
82.500000 	62.500000 	9.836060 	0.054917 	0.172051
87.500000 	62.500000 	9.808995 	0.040349 	0.211741
92.500000 	62.500000 	9.794389 	0.014868 	0.235071
97.500000 	62.500000 	9.794389 	-0.014868 	0.235071
102.500000 	62.500000 	5.102529 	-0.008444 	-0.160549
107.500000 	62.500000 	5.102529 	0.008444 	-0.160549
112.500000 	62.500000 	5.093936 	0.023375 	-0.144377
117.500000 	62.500000 	5.072459 	0.030029 	-0.106850
122.500000 	62.500000 	5.045360 	0.025520 	-0.063116
127.500000 	62.500000 	5.022830 	0.015707 	-0.029735
132.500000 	62.500000 	5.009255 	0.007323 	-0.011266
137.500000 	62.500000 	5.003028 	0.002651 	-0.003452
142.500000 	62.500000 	5.000796 	0.000752 	-0.000854
147.500000 	62.500000 	5.000166 	0.000166 	-0.000168
152.500000 	62.500000 	5.000027 	0.000028 	-0.000026
157.500000 	62.500000 	5.000003 	0.000004 	-0.000003
162.500000 	62.500000 	5.000000 	0.000000 	-0.000000
167.500000 	62.500000 	5.000000 	0.000000 	-0.000000
172.500000 	62.500000 	5.000000 	0.000000 	-0.000000
177.500000 	62.500000 	5.000000 	0.000000 	0.000000
182.500000 	62.500000 	5.000000 	0.000000 	0.000000
187.500000 	62.500000 	5.000000 	0.000000 	0.000000
192.500000 	62.500000 	5.000000 	0.000000 	0.000000
197.500000 	62.500000 	5.000000 	0.000000 	0.000000
2.500000 	67.500000 	10.000000 	0.000000 	0.000000
7.500000 	67.500000 	10.000000 	0.000000 	0.000000
12.500000 	67.500000 	10.000000 	0.000000 	0.000000
17.500000 	67.500000 	10.000000 	0.000000 	0.000000
22.500000 	67.500000 	10.000000 	0.000000 	0.000000
27.500000 	67.500000 	9.999996 	0.000004 	0.000002
32.500000 	67.500000 	9.999958 	0.000036 	0.000023
37.500000 	67.500000 	9.999725 	0.000231 	0.000157
42.500000 	67.500000 	9.998701 	0.001061 	0.000780
47.500000 	67.500000 	9.995308 	0.003706 	0.002976
52.500000 	67.500000 	9.986518 	0.010236 	0.009067
57.500000 	67.500000 	9.968260 	0.022962 	0.022746
62.500000 	67.500000 	9.937240 	0.042696 	0.048218
67.500000 	67.500000 	9.893368 	0.066835 	0.088407
72.500000 	67.500000 	9.840880 	0.088909 	0.143170
77.500000 	67.500000 	9.787069 	0.100424 	0.208381
82.500000 	67.500000 	9.739604 	0.094192 	0.275806
87.500000 	67.500000 	9.704540 	0.067588 	0.333383
92.500000 	67.500000 	9.686012 	0.024621 	0.367098
97.500000 	67.500000 	9.686012 	-0.024621 	0.367098
102.500000 	67.500000 	5.200380 	-0.016122 	-0.314092
107.500000 	67.500000 	5.200380 	0.016122 	-0.314092
112.500000 	67.500000 	5.194201 	0.048765 	-0.299335
117.500000 	67.500000 	5.163613 	0.070332 	-0.241364
122.500000 	67.500000 	5.113964 	0.067289 	-0.157647
127.500000 	67.500000 	5.064318 	0.046639 	-0.082613
132.500000 	67.500000 	5.029356 	0.024513 	-0.034924
137.500000 	67.500000 	5.010890 	0.010057 	-0.012026
142.500000 	67.500000 	5.003289 	0.003273 	-0.003388
147.500000 	67.500000 	5.000805 	0.000848 	-0.000777
152.500000 	67.500000 	5.000157 	0.000173 	-0.000143
157.500000 	67.500000 	5.000024 	0.000027 	-0.000021
162.500000 	67.500000 	5.000003 	0.000003 	-0.000002
167.500000 	67.500000 	5.000000 	0.000000 	-0.000000
172.500000 	67.500000 	5.000000 	0.000000 	-0.000000
177.500000 	67.500000 	5.000000 	0.000000 	-0.000000
182.500000 	67.500000 	5.000000 	0.000000 	0.000000
187.500000 	67.500000 	5.000000 	0.000000 	0.000000
192.500000 	67.500000 	5.000000 	0.000000 	0.000000
197.500000 	67.500000 	5.000000 	0.000000 	0.000000
2.500000 	72.500000 	10.000000 	0.000000 	0.000000
7.500000 	72.500000 	10.000000 	0.000000 	0.000000
12.500000 	72.500000 	10.000000 	0.000000 	0.000000
17.500000 	72.500000 	10.000000 	0.000000 	0.000000
22.500000 	72.500000 	9.999997 	0.000003 	0.000001
27.500000 	72.500000 	9.999971 	0.000027 	0.000014
32.500000 	72.500000 	9.999795 	0.000184 	0.000102
37.500000 	72.500000 	9.998977 	0.000898 	0.000539
42.500000 	72.500000 	9.996078 	0.003356 	0.002189
47.500000 	72.500000 	9.988015 	0.009953 	0.007111
52.500000 	72.500000 	9.969988 	0.024054 	0.019025
57.500000 	72.500000 	9.936970 	0.048363 	0.042960
62.500000 	72.500000 	9.886584 	0.082288 	0.083742
67.500000 	72.500000 	9.821504 	0.120054 	0.143945
72.500000 	72.500000 	9.749310 	0.151307 	0.222374
77.500000 	72.500000 	9.679678 	0.164280 	0.313476